ITEM: TIMESTEP
100000
ITEM: NUMBER OF ATOMS
2048
ITEM: BOX BOUNDS pp pp pp
0.0000000000000000e+00 1.6000000000000000e+01
0.0000000000000000e+00 1.6000000000000000e+01
0.0000000000000000e+00 1.6000000000000000e+01
ITEM: ATOMS id type xs ys zs
1056 1 0.0646143 0.0767538 0.0821529
1284 1 0.0759838 0.412416 0.92741
1323 1 0.41897 0.917068 0.0996045
1409 1 0.552425 0.976528 0.868744
1969 1 0.482001 0.418086 0.148745
809 1 0.32122 0.839635 0.336157
1981 1 0.803302 0.349367 0.661309
30 1 0.763064 0.994466 0.914672
981 1 0.91391 0.00276983 0.0104792
2048 1 0.655382 0.83035 0.253359
1484 1 0.849896 0.288289 0.976313
331 1 0.903043 0.170047 0.16552
1843 1 0.279997 0.314024 0.865482
59 1 0.691853 0.831727 0.910812
1676 1 0.0878507 0.0174973 0.707589
561 1 0.0650878 0.131698 0.120491
1587 1 0.396281 0.857888 0.0520367
1914 1 0.641863 0.158231 0.0929676
1107 1 0.789007 0.91762 0.838568
1307 1 0.850079 0.208626 0.96055
1348 1 0.463331 0.40696 0.356831
1670 1 0.843782 0.169654 0.159875
1301 1 0.244176 0.248441 0.954618
1127 1 0.122013 0.423611 0.0795833
556 1 0.439948 0.247276 0.182666
1963 1 0.415544 0.329734 0.950472
2017 1 0.767612 0.122688 0.97269
100 1 0.76266 0.0618491 0.111958
1708 1 0.232628 0.305012 0.968015
160 1 0.0928412 0.333351 0.0121316
367 1 0.716147 0.0730364 0.986791
610 1 0.17569 0.215108 0.802107
1182 1 0.502073 0.615714 0.00875552
937 1 0.0209432 0.512115 0.971278
2033 1 0.485748 0.313989 0.220997
514 1 0.466808 0.324111 0.0216847
1112 1 0.251666 0.586077 0.0480924
1333 1 0.777605 0.316507 0.854325
1615 1 0.288408 0.428982 0.00849968
427 1 0.267492 0.279367 0.0349023
1910 1 0.173972 0.275481 0.0261712
1097 1 0.469424 0.481806 0.77723
1415 1 0.6809 0.691356 0.0599458
1096 1 0.221257 0.595875 0.946361
463 1 0.631063 0.36283 0.830969
102 1 0.145066 0.611259 0.117398
77 1 0.323475 0.598469 0.114549
232 1 0.343618 0.608221 0.81986
1359 1 0.148489 0.452591 0.988679
1156 1 0.503209 0.693768 0.595021
1658 1 0.594692 0.675361 0.0932172
573 1 0.382468 0.532817 0.0137561
1691 1 0.387618 0.404223 0.139372
824 1 0.441632 0.298317 0.899229
1728 1 0.337119 0.557013 0.252194
252 1 0.49711 0.728651 0.956986
935 1 0.458404 0.557735 0.875915
1518 1 0.428079 0.170209 0.813397
625 1 0.0698577 0.956177 0.304533
226 1 0.257914 0.740553 0.99298
267 1 0.591639 0.631586 0.0548663
163 1 0.784254 0.737791 0.337043
1183 1 0.182196 0.29855 0.72487
771 1 0.528164 0.704132 0.0249696
1092 1 0.512964 0.787336 0.200544
494 1 0.654863 0.777345 0.0835193
942 1 0.315305 0.906047 0.120075
104 1 0.81178 0.648935 0.969142
1426 1 0.671242 0.622573 0.819242
1103 1 0.913588 0.81653 0.185096
1135 1 0.967281 0.734586 0.258553
1803 1 0.498232 0.811857 0.837079
1669 1 0.793325 0.615126 0.177825
159 1 0.478249 0.497549 0.0063611
356 1 0.444831 0.611979 0.10463
276 1 0.503019 0.845931 0.303461
1029 1 0.800502 0.673525 0.448179
1276 1 0.207881 0.825266 0.135977
1781 1 0.976506 0.0404488 0.0341284
779 1 0.00262744 0.623929 0.109108
802 1 0.688161 0.450319 0.679955
601 1 0.410798 0.95809 0.934128
1725 1 0.700024 0.68171 0.378598
1797 1 0.156114 0.701217 0.708492
1758 1 0.25 0.785589 0.16116
558 1 0.161096 0.0232507 0.876375
786 1 0.452188 0.764895 0.178013
818 1 0.654091 0.00897176 0.234231
922 1 0.329768 0.73067 0.990432
2030 1 0.813873 0.0826015 0.781567
250 1 0.438332 0.0660646 0.0177213
1242 1 0.801724 0.811684 0.0683181
75 1 0.350396 0.0964916 0.983064
941 1 0.292472 0.0637358 0.968788
1519 1 0.492052 0.183211 0.731679
139 1 0.751923 0.0299354 0.462653
339 1 0.759376 0.0474143 0.357638
1226 1 0.0792966 0.0595846 0.0233965
1629 1 0.784691 0.908808 0.0869517
57 1 0.0353086 0.116798 0.331128
1740 1 0.176285 0.940982 0.578074
715 1 0.218695 0.977094 0.457803
854 1 0.580727 0.86288 0.944712
338 1 0.265952 0.926627 0.259019
985 1 0.76463 0.24224 0.937501
1169 1 0.845161 0.269757 0.876809
79 1 0.316782 0.00939164 0.00277597
1595 1 0.220098 0.213185 0.915364
1026 1 0.924738 0.145915 0.101433
411 1 0.42089 0.35319 0.044875
323 1 0.428465 0.493189 0.835426
896 1 0.646758 0.323612 0.895996
1093 1 0.547605 0.259738 0.742385
1545 1 0.943231 0.242067 0.76783
1259 1 0.0473688 0.263679 0.171911
526 1 0.40847 0.18138 0.0876858
234 1 0.438388 0.171459 0.692818
1788 1 0.552723 0.101926 0.833632
1356 1 0.216904 0.192661 0.0831863
1526 1 0.230193 0.289841 0.215434
828 1 0.527393 0.197124 0.0503595
1643 1 0.0708722 0.401641 0.0556282
1180 1 0.615818 0.477333 0.0361039
192 1 0.373905 0.383883 0.262964
1186 1 0.574393 0.164276 0.0168405
867 1 0.816341 0.35375 0.978211
1802 1 0.496876 0.169609 0.795551
834 1 0.880206 0.0872454 0.0617452
2016 1 0.988798 0.190618 0.9909
820 1 0.0396313 0.235431 0.882993
479 1 0.00612347 0.198045 0.211847
137 1 0.59202 0.615397 0.132218
1805 1 0.969771 0.53437 0.857962
1994 1 0.286028 0.541275 0.854608
1168 1 0.38172 0.407368 0.877273
25 1 0.708691 0.233127 0.895728
821 1 0.284925 0.634809 0.884531
468 1 0.490688 0.235131 0.789705
772 1 0.883557 0.429867 0.0653546
1087 1 0.994632 0.423882 0.0370427
788 1 0.395483 0.565825 0.82753
1077 1 0.010144 0.579455 0.275377
810 1 0.427402 0.628845 0.881724
1440 1 0.468344 0.754191 0.805641
291 1 0.634576 0.651301 0.235504
517 1 0.865984 0.4413 0.00494054
47 1 0.0356349 0.758526 0.0369455
819 1 0.74422 0.438629 0.0240873
795 1 0.513541 0.446527 0.0203982
1015 1 0.43796 0.67058 0.367543
135 1 0.0437225 0.684588 0.175871
94 1 0.401848 0.371274 0.834032
1343 1 0.945386 0.705568 0.15488
1199 1 0.352679 0.17474 0.205669
379 1 0.403579 0.820501 0.207892
207 1 0.851455 0.763409 0.961876
184 1 0.628467 0.804523 0.928271
1547 1 0.354477 0.920369 0.328434
457 1 0.417443 0.746194 0.039634
1982 1 0.630544 0.536214 0.106539
1602 1 0.814611 0.763266 0.0139466
1379 1 0.306224 0.786882 0.204452
1250 1 0.528218 0.943827 0.0303112
900 1 0.562551 0.606567 0.9021
1303 1 0.383937 0.603002 0.0378976
1521 1 0.293865 0.740725 0.339615
1927 1 0.531539 0.877453 0.106112
1620 1 0.783894 0.814643 0.982644
1003 1 0.189024 0.042829 0.945644
622 1 0.520469 0.143657 0.115292
1060 1 0.907148 0.961056 0.384803
609 1 0.161949 0.0171191 0.0480183
248 1 0.208846 0.895907 0.0609701
861 1 0.615146 0.873088 0.21646
887 1 0.705959 0.0380205 0.080667
1720 1 0.109322 0.243893 0.21555
893 1 0.15548 0.940364 0.349072
1961 1 0.660295 0.051888 0.290484
1863 1 0.91813 0.0324028 0.612719
2045 1 0.59564 0.0963792 0.0437383
225 1 0.474745 0.727955 0.0641746
288 1 0.660216 0.913514 0.14323
1295 1 0.831653 0.0338587 0.147615
730 1 0.368225 0.468041 0.0123575
1479 1 0.602354 0.551481 0.755418
1497 1 0.698916 0.976361 0.142619
1227 1 0.908633 0.00122981 0.089606
1964 1 0.195154 0.108303 0.00385467
1996 1 0.727523 0.146253 0.0654902
1621 1 0.934154 0.411056 0.105475
395 1 0.840345 0.0997218 0.116981
503 1 0.563054 0.816137 0.0969441
813 1 0.59248 0.915326 0.263992
2029 1 0.290054 0.195194 0.168091
693 1 0.491063 0.0227745 0.0381658
505 1 0.28332 0.420805 0.0869414
659 1 0.736808 0.0204749 0.218161
394 1 0.204019 0.343441 0.673782
1204 1 0.553165 0.139283 0.391218
925 1 0.807102 0.26876 0.248132
446 1 0.30737 0.491716 0.198926
1368 1 0.912564 0.265426 0.830181
1583 1 0.109755 0.423009 0.374596
1921 1 0.359458 0.506593 0.860986
49 1 0.44 0.168467 0.262117
571 1 0.515493 0.465928 0.841603
269 1 0.76533 0.328885 0.215681
1257 1 0.438578 0.389507 0.907997
1641 1 0.396394 0.262342 0.250235
144 1 0.379887 0.296249 0.0872185
1213 1 0.261589 0.366586 0.192213
2027 1 0.895053 0.331925 0.876201
516 1 0.294939 0.373482 0.901421
1619 1 0.0466507 0.373183 0.149578
1699 1 0.421007 0.509221 0.10151
1351 1 0.705846 0.165963 0.118803
1800 1 0.708339 0.645569 0.186976
1194 1 0.675273 0.43142 0.257893
129 1 0.632861 0.399475 0.0530374
1071 1 0.216819 0.605739 0.399385
1950 1 0.630558 0.261721 0.0848541
1111 1 0.737182 0.349036 0.134022
1267 1 0.037263 0.386236 0.430516
1222 1 0.456108 0.923099 0.0162036
633 1 0.185953 0.790982 0.0105211
1425 1 0.21671 0.318257 0.154684
1898 1 0.878473 0.286784 0.0770935
1530 1 0.77377 0.181841 0.0978837
811 1 0.350459 0.767307 0.136085
162 1 0.333395 0.622875 0.187887
1019 1 0.773438 0.664616 0.219015
1747 1 0.191736 0.65559 0.147025
1513 1 0.603027 0.50705 0.291997
1935 1 0.839312 0.696595 0.858793
1901 1 0.0945189 0.455593 0.141876
1408 1 0.467846 0.547507 0.099333
1628 1 0.251023 0.841157 0.288888
72 1 0.829192 0.50254 0.0655829
891 1 0.290162 0.863823 0.0536707
1875 1 0.82551 0.58325 0.0103571
71 1 0.766313 0.735201 0.178225
1576 1 0.882988 0.631636 0.262553
1042 1 0.728907 0.742002 0.0660437
1453 1 0.922252 0.843998 0.28598
12 1 0.60975 0.708309 0.208763
978 1 0.0130864 0.0390376 0.980467
354 1 0.34948 0.848346 0.767842
863 1 0.560722 0.751347 0.239874
357 1 0.910293 0.903656 0.123198
1082 1 0.0121694 0.162428 0.0700101
1158 1 0.498532 0.636577 0.349431
1983 1 0.579447 0.787709 0.185975
752 1 0.845214 0.841265 0.2529
1382 1 0.0136626 0.876931 0.20678
560 1 0.445484 0.35784 0.225606
294 1 0.734699 0.368843 0.866183
991 1 0.957081 0.791897 0.929901
214 1 0.262371 0.767302 0.881915
2002 1 0.787982 0.874557 0.146923
546 1 0.995746 0.77378 0.861865
1649 1 0.130937 0.0614004 0.92244
1535 1 0.656837 0.00358169 0.981681
1493 1 0.720001 0.0861826 0.152744
176 1 0.734881 0.236159 0.0384841
1634 1 0.586376 0.264988 0.219179
970 1 0.241445 0.996392 0.182785
2038 1 0.447007 0.524305 0.957435
1829 1 0.383774 0.113282 0.409452
562 1 0.46909 0.211537 0.226545
169 1 0.634571 0.00473703 0.178685
1238 1 0.798193 0.971779 0.165095
1906 1 0.807331 0.298989 0.152597
442 1 0.99424 0.498155 0.18169
1970 1 0.408534 0.0410157 0.197065
1589 1 0.790375 0.164487 0.0300471
1150 1 0.308931 0.0966257 0.0472605
182 1 0.474851 0.241147 0.989652
1523 1 0.631289 0.29933 0.954779
1290 1 0.648786 0.251663 0.900141
1445 1 0.793111 0.302589 0.0167404
40 1 0.240367 0.360083 0.0742251
744 1 0.912478 0.352813 0.192572
1285 1 0.719052 0.0637204 0.84251
1724 1 0.208686 0.375569 0.288117
19 1 0.214654 0.511492 0.201643
973 1 0.49927 0.212384 0.117057
156 1 0.436053 0.183611 0.955554
1864 1 0.870764 0.997034 0.952578
213 1 0.231477 0.397287 0.919953
1807 1 0.584303 0.202917 0.885618
275 1 0.291037 0.26134 0.22998
1640 1 0.459315 0.480802 0.293639
1590 1 0.664311 0.54761 0.284622
1386 1 0.143029 0.331321 0.33039
1297 1 0.905897 0.351898 0.410697
575 1 0.221538 0.229267 0.212966
725 1 0.267032 0.526606 0.0399158
53 1 0.380875 0.616 0.921887
390 1 0.553565 0.414639 0.162377
1918 1 0.0031487 0.490584 0.083693
1448 1 0.225858 0.202407 0.151899
1243 1 0.423201 0.462609 0.142758
662 1 0.294341 0.260754 0.381893
733 1 0.558205 0.745687 0.103655
577 1 0.947443 0.301301 0.283794
486 1 0.772769 0.532607 0.051163
780 1 0.274329 0.564427 0.109774
1466 1 0.549288 0.605185 0.959348
456 1 0.412203 0.422257 0.287291
66 1 0.469761 0.357609 0.856091
1799 1 0.661677 0.451649 0.313887
759 1 0.850348 0.519709 0.209086
109 1 0.370371 0.415615 0.0535593
521 1 0.383634 0.550546 0.900448
1261 1 0.15289 0.528197 0.287058
243 1 0.702793 0.25279 0.312051
1552 1 0.878684 0.707506 0.94632
1383 1 0.376312 0.665629 0.983928
1956 1 0.633105 0.632825 0.693453
974 1 0.709362 0.518553 0.142861
682 1 0.228361 0.366634 0.993605
1586 1 0.689499 0.620449 0.126116
1568 1 0.953888 0.479918 0.431137
742 1 0.0685477 0.737747 0.200995
465 1 0.686998 0.572821 0.0757229
485 1 0.752632 0.759764 0.570998
1854 1 0.933836 0.634571 0.23237
151 1 0.905528 0.268334 0.180825
876 1 0.442528 0.851722 0.34596
1219 1 0.24263 0.974321 0.104813
1008 1 0.351437 0.13366 0.113072
1314 1 0.129119 0.864417 0.766891
1948 1 0.798458 0.841333 0.205839
910 1 0.607349 0.926951 0.945343
695 1 0.87971 0.934705 0.904812
6 1 0.742235 0.672228 0.143889
611 1 0.938093 0.606104 0.161271
1397 1 0.996828 0.973021 0.266613
1084 1 0.127264 0.119288 0.0601915
844 1 0.398398 0.934544 0.0409501
491 1 0.264916 0.839235 0.189326
1765 1 0.447615 0.704156 0.00828428
98 1 0.125725 0.768372 0.0937473
476 1 0.28683 0.807807 0.960658
1144 1 0.30098 0.823245 0.142709
1790 1 0.866409 0.964766 0.236417
1393 1 0.467724 0.908519 0.147289
895 1 0.682848 0.25599 0.820745
91 1 0.957671 0.141782 0.211656
153 1 0.432944 0.915201 0.381407
326 1 0.496959 0.0223856 0.194314
858 1 0.0170477 0.0149362 0.154421
604 1 0.959215 0.287881 0.222295
1751 1 0.843021 0.0419485 0.995841
1874 1 0.0940369 0.106791 0.558997
644 1 0.366527 0.925953 0.148531
829 1 0.226558 0.148246 0.312931
643 1 0.588376 0.857813 0.13667
1452 1 0.0378047 0.291218 0.990067
173 1 0.249209 0.111645 0.261579
150 1 0.347945 0.178162 0.0615356
619 1 0.710571 0.124708 0.0136757
1424 1 0.79525 0.380497 0.0932289
1129 1 0.281562 0.194683 0.23612
1748 1 0.476063 0.0636492 0.313276
1148 1 0.681385 0.30673 0.119917
1028 1 0.763243 0.974167 0.284905
1541 1 0.483425 0.477815 0.412972
1330 1 0.416622 0.183332 0.193204
1616 1 0.944227 0.550102 0.262178
849 1 0.957012 0.35045 0.133819
1818 1 0.508639 0.0798678 0.222926
882 1 0.414727 0.124432 0.183513
547 1 0.149938 0.26365 0.0828703
1203 1 0.446317 0.320647 0.816869
1564 1 0.567662 0.250509 0.127307
26 1 0.683871 0.232799 0.194019
1418 1 0.527789 0.873948 0.186778
1392 1 0.895046 0.39012 0.283169
1656 1 0.0482019 0.231716 0.986632
200 1 0.903757 0.0179831 0.290894
1240 1 0.615035 0.399146 0.418525
145 1 0.495562 0.802648 0.0329946
976 1 0.393459 0.420505 0.974013
1534 1 0.250476 0.51788 0.91816
461 1 0.341095 0.657343 0.0886559
995 1 0.198656 0.621101 0.333033
1543 1 0.0378675 0.487455 0.547491
570 1 0.432681 0.574967 0.297768
1353 1 0.963128 0.253402 0.961527
1380 1 0.356609 0.261229 0.45513
755 1 0.0849773 0.662522 0.372401
1782 1 0.302287 0.652578 0.355742
1122 1 0.499422 0.473736 0.246032
1991 1 0.0659733 0.641461 0.0759672
953 1 0.254956 0.670178 0.175968
1217 1 0.144394 0.734253 0.281326
637 1 0.886868 0.707045 0.280938
945 1 0.96325 0.698302 0.398666
297 1 0.493025 0.541253 0.779891
1842 1 0.108648 0.5262 0.354583
653 1 0.202771 0.93361 0.151389
199 1 0.467745 0.461308 0.0789966
312 1 0.397524 0.808833 0.091322
1076 1 0.881703 0.573073 0.0620916
1210 1 0.574145 0.999852 0.274435
21 1 0.93921 0.518611 0.478464
1594 1 0.235497 0.611926 0.180994
69 1 0.318819 0.875186 0.194158
727 1 0.364462 0.756548 0.200875
1291 1 0.385461 0.9454 0.80002
1449 1 0.771642 0.50917 0.132403
665 1 0.480081 0.761225 0.901728
1822 1 0.0316242 0.77484 0.285963
1912 1 0.690231 0.492229 0.0824285
167 1 0.522405 0.915484 0.231754
564 1 0.147142 0.412944 0.295334
1849 1 0.195462 0.0222737 0.402915
808 1 0.404895 0.733129 0.977021
1091 1 0.373363 0.49924 0.427714
236 1 0.456477 0.646206 0.0448913
1355 1 0.0233649 0.715865 0.400684
1578 1 0.239248 0.560397 0.360944
663 1 0.107954 0.907627 0.303475
1423 1 0.0992425 0.711208 0.155797
487 1 0.213075 0.0504574 0.146523
141 1 0.710696 0.872273 0.307345
1117 1 0.602032 0.943483 0.0235895
1157 1 0.326476 0.604708 0.675053
1744 1 0.414032 0.595719 0.510055
1959 1 0.605133 0.563161 0.0548483
580 1 0.942675 0.794977 0.335783
1580 1 0.0272031 0.077723 0.179606
342 1 0.0879777 0.797889 0.267935
927 1 0.18095 0.872471 0.282826
500 1 0.324395 0.67302 0.236362
649 1 0.514726 0.882623 0.437502
1990 1 0.826319 0.173839 0.470139
1073 1 0.986434 0.821583 0.0708822
1763 1 0.0870483 0.0409154 0.208238
679 1 0.794693 0.932546 0.227639
1406 1 0.775116 0.0743716 0.549928
1859 1 0.739641 0.819485 0.126444
760 1 0.751841 0.994005 0.122558
473 1 0.104353 0.0290322 0.0688849
1546 1 0.72714 0.903286 0.123991
1481 1 0.746331 0.982927 0.423611
383 1 0.32788 0.0412735 0.388202
961 1 0.278098 0.74559 0.061266
1335 1 0.815584 0.992985 0.111314
299 1 0.184656 0.303912 0.455162
627 1 0.193669 0.964943 0.206918
220 1 0.566158 0.0939522 0.233181
842 1 0.660597 0.0451464 0.363978
1660 1 0.916314 0.197226 0.949345
1666 1 0.0993194 0.127334 0.427314
856 1 0.272207 0.298296 0.301964
965 1 0.353642 0.272499 0.348336
459 1 0.222648 0.977697 0.2996
382 1 0.71191 0.112371 0.212845
95 1 0.91783 0.195225 0.53587
688 1 0.938112 0.200962 0.284744
732 1 0.314694 0.0479752 0.198013
1400 1 0.820027 0.922428 0.784727
1661 1 0.950632 0.0999417 0.14974
42 1 0.0870221 0.0324965 0.341753
1886 1 0.498707 0.301096 0.163872
1548 1 0.471333 0.303297 0.287002
1049 1 0.888124 0.121954 0.777298
620 1 0.805568 0.57387 0.22865
155 1 0.335066 0.304636 0.286015
902 1 0.159644 0.866325 0.513599
1124 1 0.764853 0.229394 0.31946
55 1 0.80435 0.864486 0.305218
92 1 0.686305 0.339394 0.326934
1252 1 0.16528 0.330908 0.212153
1102 1 0.48057 0.237859 0.287802
373 1 0.892454 0.356315 0.107236
1796 1 0.0843655 0.556753 0.41039
447 1 0.0762181 0.608371 0.1515
1457 1 0.410895 0.14753 0.0322001
1047 1 0.278874 0.062478 0.326154
641 1 0.752784 0.0833673 0.914598
123 1 0.216219 0.194937 0.369435
1328 1 0.649947 0.485425 0.904775
1746 1 0.521965 0.474279 0.164515
739 1 0.817729 0.646977 0.360344
1908 1 0.816549 0.630625 0.245629
538 1 0.507835 0.302155 0.0905047
1140 1 0.139182 0.260469 0.341064
1391 1 0.611158 0.560599 0.160334
661 1 0.0350516 0.370425 0.0112729
1858 1 0.226473 0.409239 0.771835
510 1 0.263533 0.547688 0.177749
271 1 0.532247 0.326115 0.26994
930 1 0.807307 0.496624 0.95945
837 1 0.298027 0.374041 0.29952
871 1 0.327637 0.5513 0.0566178
634 1 0.555718 0.509294 0.989248
1177 1 0.0890946 0.827148 0.92669
710 1 0.172469 0.857763 0.0335141
1642 1 0.073463 0.807654 0.0723966
1322 1 0.411535 0.852318 0.287524
1366 1 0.770273 0.570246 0.105611
1324 1 0.0366929 0.545494 0.328988
391 1 0.132958 0.485488 0.220079
737 1 0.468677 0.405133 0.982039
1809 1 0.824998 0.538741 0.318226
933 1 0.477023 0.605132 0.529614
1306 1 0.82254 0.454218 0.179372
329 1 0.663251 0.591918 0.388393
777 1 0.831672 0.819226 0.341935
1575 1 0.198045 0.832757 0.554274
1770 1 0.626531 0.599592 0.265525
470 1 0.0976271 0.277245 0.963241
522 1 0.874484 0.893341 0.522721
677 1 0.83437 0.938949 0.360148
2019 1 0.874952 0.730878 0.202288
705 1 0.799006 0.786393 0.169384
1100 1 0.0601934 0.112118 0.265734
1900 1 0.342215 0.911173 0.462106
183 1 0.591948 0.424604 0.481533
309 1 0.552153 0.799162 0.325875
1123 1 0.79495 0.0110319 0.388584
1890 1 0.925144 0.0778876 0.322679
1766 1 0.723845 0.728727 0.342639
353 1 0.949386 0.132375 0.384341
272 1 0.858711 0.751453 0.361409
1147 1 0.037442 0.85574 0.294796
507 1 0.290141 0.93124 0.333645
1684 1 0.473948 0.822321 0.15182
178 1 0.389931 0.691007 0.825254
185 1 0.631822 0.902299 0.0681263
724 1 0.634424 0.675189 0.317199
672 1 0.961488 0.0161645 0.302909
804 1 0.172811 0.875746 0.190939
704 1 0.666991 0.0661275 0.210967
1264 1 0.678607 0.324437 0.179806
1045 1 0.0291847 0.940599 0.00939258
424 1 0.84949 0.922578 0.166289
1315 1 0.0140594 0.297627 0.138476
172 1 0.570588 0.44766 0.102331
80 1 0.165552 0.0558018 0.291654
1801 1 0.795806 0.0876437 0.164358
1834 1 0.997357 0.0345536 0.371989
1245 1 0.0995374 0.364654 0.237549
606 1 0.0573873 0.174242 0.250391
909 1 0.143882 0.338097 0.401466
988 1 0.62263 0.248701 0.458077
1942 1 0.545407 0.30401 0.00306475
1229 1 0.556506 0.185688 0.145278
1838 1 0.987589 0.423447 0.275616
728 1 0.160731 0.460026 0.334215
656 1 0.194851 0.256153 0.412175
189 1 0.187448 0.395125 0.466327
318 1 0.438882 0.376728 0.121933
706 1 0.770025 0.510831 0.316353
1460 1 0.631753 0.463737 0.0911314
747 1 0.929603 0.370799 0.0502227
969 1 0.906825 0.553778 0.438691
987 1 0.266074 0.305968 0.506535
2010 1 0.714554 0.491264 0.297138
654 1 0.165231 0.633474 0.254715
1929 1 0.587397 0.319219 0.446783
406 1 0.60404 0.185283 0.948535
1967 1 0.176049 0.255241 0.185843
1502 1 0.195074 0.224265 0.508246
1160 1 0.339465 0.558729 0.166182
2046 1 0.88746 0.0364368 0.192592
1104 1 0.752508 0.225518 0.241274
1211 1 0.0175584 0.553283 0.0268837
996 1 0.329579 0.331801 0.0124668
1823 1 0.707834 0.466965 0.438394
1329 1 0.479204 0.680055 0.245315
307 1 0.508304 0.57273 0.238295
1263 1 0.801363 0.986848 0.470135
1062 1 -0.000796433 0.337833 0.306254
1718 1 0.930539 0.022897 0.355536
1609 1 0.408888 0.365316 0.316427
1357 1 0.0167099 0.452166 0.398084
1167 1 0.208726 0.736859 0.302351
681 1 0.266998 0.590232 0.267971
96 1 0.86978 0.725279 0.0157676
1208 1 0.720026 0.42113 0.502435
817 1 0.126692 0.782488 0.0222773
1626 1 0.439721 0.638674 0.427828
412 1 0.476157 0.416767 0.536395
1844 1 0.079209 0.868775 0.243383
388 1 0.732531 0.614437 0.25454
438 1 0.0813855 0.973386 0.241308
283 1 0.493027 0.661313 0.476327
1225 1 0.736613 0.809165 0.503341
1033 1 0.755013 0.706584 0.285348
1395 1 0.5381 0.814026 0.44517
54 1 0.3821 0.582018 0.1097
1337 1 0.735972 0.611253 0.385847
918 1 0.657838 0.164258 0.167358
415 1 0.397002 0.517914 0.30775
1978 1 0.979949 0.00744358 0.097069
1968 1 0.0842383 0.908741 0.196698
589 1 0.259002 0.68051 0.384225
1512 1 0.553826 0.0629177 0.293521
1080 1 0.59919 0.570288 0.347676
921 1 0.00944908 0.0733066 0.878713
1205 1 0.56939 0.0781927 0.35641
1362 1 0.677329 0.778371 0.609243
1220 1 0.381384 0.655888 0.221499
543 1 0.539442 0.736373 0.455728
421 1 0.170445 0.77833 0.348981
289 1 0.415879 0.807259 0.496965
1785 1 0.404385 0.987123 0.260719
506 1 0.0251323 0.977238 0.349639
298 1 0.934629 0.904491 0.204044
698 1 0.202516 0.0948369 0.209651
1953 1 0.518264 0.219198 0.402597
700 1 0.622788 0.953384 0.372523
1235 1 0.831815 0.152356 0.981726
971 1 0.256419 0.412073 0.26521
1108 1 0.329875 0.820642 0.2582
186 1 0.115324 0.185772 0.239598
948 1 0.879778 0.904386 0.253211
2025 1 0.937492 0.0585898 0.244914
1958 1 0.28775 0.376263 0.140402
1873 1 0.464038 0.926829 0.290436
222 1 0.981818 0.222235 0.532103
1650 1 0.294316 0.458052 0.283652
1688 1 0.265725 0.0146059 0.416267
1273 1 0.463676 0.330837 0.5719
1488 1 0.058201 0.88882 0.349196
1105 1 0.300829 0.110078 0.168518
175 1 0.664712 0.901292 0.248323
344 1 0.166143 0.180927 0.315323
1166 1 0.82632 0.247338 0.102889
853 1 0.46144 0.0733196 0.527339
2009 1 0.302095 0.129135 0.305625
1645 1 0.695078 0.290249 0.512834
1495 1 0.871488 0.258841 0.482869
2022 1 0.472415 0.256803 0.440195
783 1 0.706865 0.0194791 0.946972
1007 1 0.614516 0.468279 0.245832
686 1 0.655738 0.236925 0.6858
1255 1 0.925514 0.216974 0.22613
1777 1 0.70791 0.794951 0.209107
1563 1 0.0743824 0.252442 0.0652398
64 1 0.333423 0.116605 0.455799
764 1 0.654433 0.12768 0.219711
519 1 0.571895 0.130992 0.185083
1402 1 0.394215 0.284814 0.0028852
1063 1 0.814724 0.22162 0.167149
1952 1 0.737141 0.378245 0.267743
1584 1 0.0897318 0.367687 0.302452
51 1 0.460656 0.212189 0.35891
542 1 0.646576 0.179021 0.65902
1114 1 0.16093 0.232405 0.25698
1675 1 0.575114 0.38175 0.037647
1554 1 0.677918 0.56283 0.447113
293 1 0.368548 0.228166 0.123742
1431 1 0.411996 0.0964132 0.46221
957 1 0.19037 0.95838 0.404564
180 1 0.0739778 0.245889 0.298399
131 1 0.206466 0.587299 0.268856
919 1 0.479509 0.414172 0.286249
221 1 0.0885918 0.214935 0.481238
1627 1 0.588141 0.476532 0.420246
1163 1 0.542275 0.421238 0.302572
1017 1 0.667037 0.367005 0.257354
398 1 0.986849 0.438459 0.203874
841 1 0.901427 0.579819 0.222548
1462 1 0.386669 0.189042 0.329055
599 1 0.598704 0.370791 0.293568
1230 1 0.98944 0.332374 0.950937
1260 1 0.337974 0.431224 0.171718
723 1 0.137924 0.511846 0.500143
1262 1 0.349877 0.436998 0.300055
1733 1 0.204946 0.626692 0.0719277
492 1 0.841861 0.731025 0.447279
1525 1 0.859264 0.666596 0.215445
219 1 0.965967 0.597243 0.316391
146 1 0.234997 0.454762 0.14554
1116 1 0.280924 0.726831 0.206161
1972 1 0.449693 0.889065 0.227982
387 1 0.475715 0.493491 0.135676
34 1 0.699419 0.593999 0.338502
229 1 0.902104 0.722636 0.447708
45 1 0.675855 0.535667 0.199769
1520 1 0.23658 0.764078 0.353378
1706 1 0.112181 0.661639 0.220403
548 1 0.536435 0.691746 0.186206
1020 1 0.413141 0.495877 0.36907
1374 1 0.675805 0.745574 0.559239
1588 1 0.40292 0.844909 0.686327
1915 1 0.0678821 0.759219 0.129937
434 1 0.284335 0.639683 0.110062
602 1 0.547996 0.668316 0.301492
1181 1 0.366765 0.997467 0.155038
1022 1 0.656746 0.91212 0.466648
392 1 0.713688 0.920774 0.396131
1001 1 0.995313 0.829005 0.464753
793 1 0.1823 0.730984 0.766176
532 1 0.0758678 0.914873 0.413211
1068 1 0.00891186 0.779985 0.108434
701 1 0.244145 0.666601 0.256966
124 1 0.147176 0.898712 0.406826
1893 1 0.163574 0.0787309 0.0914501
37 1 0.390984 0.918623 0.234363
4 1 0.761118 0.883355 0.630273
164 1 0.866339 0.185906 0.588786
425 1 0.919425 0.201427 0.433304
1270 1 0.0218534 0.31763 0.231054
441 1 0.243818 0.122691 0.578631
168 1 0.38074 0.861517 0.113175
1566 1 0.0250067 0.144987 0.671274
1697 1 0.986758 0.226111 0.374814
1600 1 0.134986 0.0869617 0.475726
1783 1 0.436046 0.20432 0.610502
664 1 0.595936 0.176441 0.233536
553 1 0.363087 0.119921 0.293418
1458 1 0.412279 0.254668 0.342107
520 1 0.829828 0.01443 0.248865
22 1 0.4643 0.325288 0.425119
642 1 0.334201 0.153005 0.558799
201 1 0.652371 0.0862784 0.461878
1509 1 0.359337 0.0229828 0.302334
1853 1 0.90666 0.17707 0.689508
1617 1 0.238516 0.880939 0.395475
317 1 0.235797 0.294801 0.574907
28 1 0.676205 0.155909 0.895795
511 1 0.177492 0.535476 0.424095
1338 1 0.745666 0.357465 0.36764
1066 1 0.55904 0.475494 0.503476
943 1 0.861723 0.423255 0.375963
1569 1 0.617179 0.394165 0.221483
2036 1 0.198698 0.30359 0.283298
1389 1 0.396663 0.43653 0.207053
1573 1 0.766791 0.215606 0.652578
1793 1 0.20278 0.328358 0.355762
518 1 0.872886 0.606182 0.458613
1593 1 0.169985 0.411245 0.638096
836 1 0.940154 0.401623 0.356976
351 1 0.815174 0.487267 0.486512
372 1 0.831848 0.118519 0.223427
1845 1 0.398192 0.296461 0.145805
2042 1 0.528983 0.331015 0.535476
1719 1 0.669275 0.132168 0.380082
749 1 0.709946 0.473032 0.200868
1375 1 0.108792 0.193385 0.349202
1133 1 0.276921 0.426732 0.355552
1247 1 0.411061 0.352525 0.37998
2007 1 0.0259233 0.380648 0.218482
1396 1 0.647728 0.473172 0.552673
590 1 0.503824 0.142479 0.203624
1673 1 0.920192 0.440768 0.312111
1417 1 0.961536 0.322878 0.369845
652 1 0.972082 0.245205 0.0263252
1269 1 0.671755 0.405894 0.365513
7 1 0.602091 0.339905 0.3709
624 1 0.800545 0.615157 0.0606992
1836 1 0.971895 0.656661 0.302668
1030 1 0.902267 0.57251 0.312984
962 1 0.365829 0.734314 0.276334
1214 1 0.637183 0.819616 0.153527
1528 1 0.225998 0.426636 0.209309
495 1 0.128726 0.545873 0.562705
1618 1 0.404737 0.656504 0.5652
1146 1 0.736582 0.456743 0.348932
1997 1 0.897259 0.644551 0.329691
932 1 0.789402 0.604284 0.469988
1579 1 0.205665 0.443828 0.514722
88 1 0.343508 0.534482 0.528931
370 1 0.0496947 0.668495 0.592706
1810 1 0.768198 0.756189 0.25865
1164 1 0.332164 0.433993 0.483656
1472 1 0.207561 0.039025 0.234239
120 1 0.454707 0.777723 0.342341
1064 1 0.597952 0.114043 0.279886
315 1 0.785483 0.409132 0.18218
1567 1 0.809944 0.120257 0.619552
1128 1 0.853752 0.488598 0.278584
241 1 0.0449444 0.889899 0.11836
1050 1 0.968884 0.887339 0.396512
1687 1 0.361777 0.722532 0.674293
608 1 0.592382 0.718287 0.354857
376 1 0.217554 0.581905 0.463176
1305 1 0.444118 0.970182 0.542983
1596 1 0.653328 0.87043 0.3931
1223 1 0.364706 0.707973 0.115838
595 1 0.672213 0.695453 0.187418
81 1 0.92025 0.0108437 0.452576
466 1 0.00578947 0.706178 0.127456
1172 1 0.595974 0.896525 0.422835
1412 1 0.995267 0.153639 0.568649
365 1 0.72923 0.970198 0.362703
52 1 0.112309 0.1522 0.483075
860 1 0.848796 0.0721961 0.25724
436 1 0.794814 0.814795 0.270038
1540 1 0.0767464 0.657311 0.439667
947 1 0.326678 0.998601 0.473776
1979 1 0.891931 0.0607014 0.434667
1832 1 0.585843 0.864281 0.348106
1377 1 1.00074 0.837308 0.656269
371 1 0.972396 0.966024 0.400347
1960 1 0.132274 0.103469 0.335887
428 1 0.601571 0.0194445 0.0780473
432 1 0.940266 0.266984 0.685399
983 1 0.894377 0.149256 0.256086
1061 1 0.218228 0.149309 0.408269
1723 1 0.228287 0.506868 0.456906
1 1 0.496866 0.908063 0.509949
1429 1 0.538878 0.691354 0.718609
685 1 0.208202 0.800634 0.298377
735 1 0.678249 0.222985 0.0634336
955 1 0.915036 0.445906 0.55397
1623 1 0.0444053 0.189381 0.1394
2018 1 0.291144 0.051107 0.26845
1833 1 0.770923 0.915173 0.383702
1860 1 0.804414 0.318328 0.349627
1074 1 0.600266 0.474582 0.150615
364 1 0.0521758 0.290939 0.400046
1925 1 0.437278 0.146199 0.398563
1851 1 0.0676578 0.305779 0.509358
204 1 0.548403 0.279238 0.40025
1630 1 0.960453 0.827135 0.234179
588 1 0.745297 0.249587 0.101168
1737 1 0.611991 0.0574427 0.517801
1919 1 0.657686 0.598792 0.515214
348 1 0.865847 0.356644 0.500727
1987 1 0.244573 0.255536 0.33688
1413 1 0.22326 0.176397 0.25349
593 1 0.851462 0.346079 0.196863
1287 1 0.839674 0.746404 0.623826
483 1 0.761922 0.691577 0.379177
158 1 0.470709 0.0331404 0.252404
1065 1 0.882378 0.788593 0.059366
454 1 0.235683 0.599914 0.520037
960 1 0.513232 0.387696 0.201761
1605 1 0.57312 0.957488 0.518026
133 1 0.64108 0.511183 0.425034
206 1 0.149418 0.507682 0.141469
616 1 0.602514 0.569249 0.42095
1106 1 0.603781 0.54584 0.245363
1599 1 0.566294 0.314775 0.184717
218 1 0.948093 0.375838 0.253616
355 1 0.968132 0.481803 0.278195
1971 1 0.338607 0.575267 0.444605
689 1 0.333204 0.304789 0.510129
1865 1 0.430098 0.732784 0.121713
1840 1 0.82062 0.889716 0.651983
843 1 0.946582 0.185925 0.345736
453 1 0.460427 0.619425 0.166588
1713 1 0.185675 0.797394 0.203821
1884 1 0.379995 0.938516 0.725199
1962 1 0.857268 0.210232 0.262905
1955 1 0.0688829 0.655252 0.287157
1174 1 0.347456 0.689434 0.174209
1787 1 0.415787 0.477266 0.252476
1571 1 0.948077 0.886511 0.333514
630 1 0.445615 0.549936 0.376082
552 1 0.0810613 0.726057 0.732404
1188 1 0.41514 0.631288 0.286103
119 1 0.35767 0.680622 0.334127
513 1 0.245859 0.833032 0.610469
1729 1 0.460191 0.837259 0.726525
1130 1 0.552346 0.523281 0.402666
1672 1 0.571833 0.832769 0.254033
386 1 0.785935 0.849619 0.361696
1489 1 0.969802 0.888263 0.520974
963 1 0.294425 0.317921 0.153098
1693 1 0.550425 0.602249 0.363484
67 1 0.962364 0.998129 0.200016
311 1 0.793089 0.790239 0.466777
405 1 0.955078 0.816057 0.535582
1443 1 0.948527 0.126277 0.28685
1665 1 0.401435 0.0568036 0.531886
554 1 0.498456 0.00282959 0.502235
33 1 0.621807 0.791809 0.343155
1811 1 0.00844406 0.917134 0.31507
1681 1 0.390413 0.0802467 0.336168
892 1 0.397985 0.0531071 0.394017
1965 1 0.363437 0.833799 0.486887
1193 1 0.517192 0.907488 0.377305
531 1 0.781607 0.15846 0.695578
385 1 0.761594 0.701361 0.688652
18 1 0.478547 0.0946353 0.38119
1869 1 0.988406 0.837417 0.150459
1304 1 0.697116 0.0365896 0.491801
914 1 -0.000718261 0.801391 0.409795
1253 1 0.0441595 0.198313 0.330914
1745 1 0.892568 0.445278 0.209291