LAMMPS (15 Sep 2022)
OMP_NUM_THREADS environment is not set. Defaulting to 1 thread. (src/comm.cpp:98)
  using 1 OpenMP thread(s) per MPI task
# 3D WCA system, random initial configuration

# Variable density equal 0.8 to 1.5
variable initial_temperature equal 3.0
variable final_temperature equal 0.1
variable dt equal 0.01
variable tau equal 100*${dt}
variable tau equal 100*0.01
variable thermo_time equal 50000*${dt}
variable thermo_time equal 50000*0.01
variable equil_steps equal 50000
variable run_steps equal 100000

units           lj
atom_style      atomic
dimension       3

# Use FCC lattice with a region of size 8x8x8
lattice         fcc 0.5
Lattice spacing in x,y,z = 2 2 2
region          box block 0 8 0 8 0 8
# Number of atom types
create_box      1 box
Created orthogonal box = (0 0 0) to (16 16 16)
  1 by 1 by 1 MPI processor grid
create_atoms    1 box
Created 2048 atoms
  using lattice units in orthogonal box = (0 0 0) to (16 16 16)
  create_atoms CPU = 0.001 seconds
mass 1 1.0

velocity all create ${initial_temperature} 12345
velocity all create 3 12345

pair_style      lj/cut 1.0
# Type_1 type_2 epsilon sigma cutoff
pair_coeff      1 1 10.0 0.89089871814 1.0
pair_modify shift yes

timestep ${dt}
timestep 0.01
thermo ${thermo_time}
thermo 500

fix 1 all nvt temp ${initial_temperature} ${initial_temperature} ${tau}
fix 1 all nvt temp 3 ${initial_temperature} ${tau}
fix 1 all nvt temp 3 3 ${tau}
fix 1 all nvt temp 3 3 1
run ${equil_steps}
run 50000
Generated 0 of 0 mixed pair_coeff terms from geometric mixing rule
Neighbor list info ...
  update: every = 1 steps, delay = 0 steps, check = yes
  max neighbors/atom: 2000, page size: 100000
  master list distance cutoff = 1.3
  ghost atom cutoff = 1.3
  binsize = 0.65, bins = 25 25 25
  1 neighbor lists, perpetual/occasional/extra = 1 0 0
  (1) pair lj/cut, perpetual
      attributes: half, newton on
      pair build: half/bin/atomonly/newton
      stencil: half/bin/3d
      bin: standard
Per MPI rank memory allocation (min/avg/max) = 3.212 | 3.212 | 3.212 Mbytes
   Step          Temp          E_pair         E_mol          TotEng         Press     
         0   3              0              0              4.4978027      1.4992676    
       500   2.9363084      0.38281691     0              4.7851289      3.9556505    
      1000   2.9923887      0.37415055     0              4.8605419      3.9595251    
      1500   2.9135801      0.4152766      0              4.7835128      4.1578404    
      2000   2.8418388      0.37459005     0              4.6352668      3.8377505    
      2500   2.9554058      0.35304036     0              4.7839844      3.8474557    
      3000   2.984109       0.38020595     0              4.8541838      3.90379      
      3500   2.9540993      0.36511616     0              4.7941014      3.8585913    
      4000   2.9534184      0.36094652     0              4.7889109      3.7991947    
      4500   2.9947901      0.36601813     0              4.8560099      3.9136596    
      5000   2.8483326      0.37691662     0              4.6473293      3.9543345    
      5500   2.9357669      0.38955217     0              4.7910523      3.95096      
      6000   3.0367928      0.33239363     0              4.8853586      3.7468062    
      6500   3.0216321      0.3629922      0              4.8932272      3.8841806    
      7000   3.0234363      0.38297677     0              4.9159167      3.9895955    
      7500   3.0916237      0.39525975     0              5.0304309      4.0497928    
      8000   3.1338391      0.37144716     0              5.0699105      3.9734555    
      8500   2.9452571      0.39563876     0              4.8113672      3.9838668    
      9000   2.9534069      0.40782698     0              4.8357741      4.0518017    
      9500   2.981746       0.33645031     0              4.8068853      3.7136235    
     10000   2.9514667      0.35851741     0              4.7835557      3.8243598    
     10500   2.9694435      0.37073043     0              4.8227208      3.8936094    
     11000   2.9707378      0.34741603     0              4.8013469      3.7635253    
     11500   2.8407133      0.38477959     0              4.643769       3.9040002    
     12000   2.8864365      0.40729486     0              4.7348355      3.9935773    
     12500   2.9630362      0.39252553     0              4.8349096      3.9750507    
     13000   2.9790817      0.38476421     0              4.8512048      3.9239368    
     13500   3.0104034      0.37175486     0              4.8851551      3.9283471    
     14000   2.982373       0.36976409     0              4.8411393      3.9355412    
     14500   3.0104892      0.38674452     0              4.9002733      3.9908062    
     15000   2.9985249      0.39125019     0              4.8868413      4.0823702    
     15500   3.0665877      0.40999308     0              5.0076286      4.0577871    
     16000   3.0197878      0.37994447     0              4.9074144      3.9648589    
     16500   3.0825357      0.38040034     0              5.0019461      3.975756     
     17000   2.9833097      0.42008218     0              4.8928617      4.1120986    
     17500   3.0438726      0.32730689     0              4.8908864      3.7815449    
     18000   2.9930626      0.36732976     0              4.8547315      3.8644402    
     18500   2.9464606      0.36933338     0              4.7868663      3.8282999    
     19000   2.949542       0.43213781     0              4.8542904      4.155265     
     19500   2.932596       0.39067186     0              4.787418       4.0060304    
     20000   2.9730472      0.40155002     0              4.8589434      3.9882967    
     20500   2.9790268      0.3275789      0              4.7939372      3.6573369    
     21000   2.9818951      0.387987       0              4.8586456      4.0063508    
     21500   3.0254229      0.35199458     0              4.887913       3.8354333    
     22000   3.0322654      0.33813844     0              4.8843157      3.7839507    
     22500   2.8822874      0.37344888     0              4.6947689      3.88385      
     23000   2.9429335      0.38219699     0              4.7944417      3.9729631    
     23500   2.9561323      0.37539962     0              4.8074329      3.8857849    
     24000   2.9156434      0.38635398     0              4.7576836      3.8916982    
     24500   2.9211794      0.39425326     0              4.7738828      4.0118086    
     25000   2.9719712      0.40889578     0              4.8646759      4.1488488    
     25500   2.9813487      0.3804989      0              4.8503384      3.9428217    
     26000   2.9066872      0.38853765     0              4.7464395      3.9480435    
     26500   2.9882704      0.35202776     0              4.8322448      3.8402222    
     27000   2.9591093      0.3866632      0              4.8231599      3.9062671    
     27500   3.0085073      0.37278037     0              4.8833378      3.8894825    
     28000   3.1134882      0.43482193     0              5.1027738      4.2492018    
     28500   3.0985812      0.36134787     0              5.0069502      3.948058     
     29000   3.0309945      0.38039988     0              4.9246717      3.9538928    
     29500   2.9971423      0.41231944     0              4.9058377      4.0994161    
     30000   3.0410111      0.34329549     0              4.9025848      3.7770202    
     30500   3.0394202      0.38526182     0              4.942166       3.9983896    
     31000   2.9546729      0.35886603     0              4.7887113      3.793808     
     31500   2.9501653      0.32813144     0              4.7512187      3.6949497    
     32000   2.9164301      0.41671608     0              4.7892252      4.1569978    
     32500   2.957225       0.41681928     0              4.8504908      4.0971902    
     33000   3.0177644      0.37337865     0              4.8978149      3.9133115    
     33500   3.0754892      0.4103746      0              5.0213559      4.141647     
     34000   3.012119       0.41798509     0              4.9339575      4.1617889    
     34500   3.0121328      0.35433787     0              4.8703309      3.8796469    
     35000   2.9359885      0.4051263      0              4.8069586      4.0275791    
     35500   2.9139664      0.36951751     0              4.7383329      3.9006521    
     36000   2.9522492      0.37334355     0              4.799555       3.910589     
     36500   3.0247025      0.39063849     0              4.9254769      3.9889899    
     37000   3.0282323      0.42388719     0              4.9640178      4.1557456    
     37500   3.069714       0.38491157     0              4.9872342      4.0053051    
     38000   3.0198704      0.38506251     0              4.9126563      3.9474583    
     38500   2.9570839      0.34328183     0              4.7767418      3.7245227    
     39000   2.9824798      0.38144409     0              4.8529793      3.9456424    
     39500   2.9208555      0.37514237     0              4.7542864      3.9299931    
     40000   2.9396745      0.318466       0              4.7258246      3.6086525    
     40500   2.9026796      0.33635169     0              4.6882452      3.7023732    
     41000   2.9655436      0.38212586     0              4.8282692      3.9712491    
     41500   3.0230387      0.34988938     0              4.8822333      3.785828     
     42000   3.0364564      0.38727415     0              4.9397348      4.0483438    
     42500   3.0376503      0.34110771     0              4.8953584      3.825211     
     43000   3.0613534      0.35771175     0              4.9474996      3.8844924    
     43500   3.041892       0.38141215     0              4.9420221      3.950812     
     44000   3.0030498      0.38036888     0              4.8827441      3.9323904    
     44500   2.9237104      0.35227232     0              4.7356965      3.75449      
     45000   2.9332132      0.34674979     0              4.7444213      3.7195814    
     45500   2.9990083      0.35341906     0              4.8497349      3.7999996    
     46000   3.0572817      0.3472129      0              4.9308962      3.844491     
     46500   3.0184042      0.36682397     0              4.8922195      3.8940627    
     47000   3.0685238      0.38824944     0              4.9887877      4.0660015    
     47500   3.0970957      0.37988586     0              5.023261       4.0698627    
     48000   3.0494842      0.41153728     0              4.9835301      4.1019487    
     48500   3.0372499      0.36993224     0              4.9235826      3.93695      
     49000   3.0406788      0.35717767     0              4.9159688      3.8517458    
     49500   3.1092821      0.35110048     0              5.0127463      3.889025     
     50000   3.0912713      0.36940397     0              5.0040467      3.9377815    
Loop time of 18.959 on 1 procs for 50000 steps with 2048 atoms

Performance: 2278598.272 tau/day, 2637.267 timesteps/s, 5.401 Matom-step/s
99.6% CPU use with 1 MPI tasks x 1 OpenMP threads

MPI task timing breakdown:
Section |  min time  |  avg time  |  max time  |%varavg| %total
---------------------------------------------------------------
Pair    | 2.3597     | 2.3597     | 2.3597     |   0.0 | 12.45
Neigh   | 13.768     | 13.768     | 13.768     |   0.0 | 72.62
Comm    | 1.0423     | 1.0423     | 1.0423     |   0.0 |  5.50
Output  | 0.0058402  | 0.0058402  | 0.0058402  |   0.0 |  0.03
Modify  | 1.2751     | 1.2751     | 1.2751     |   0.0 |  6.73
Other   |            | 0.5076     |            |       |  2.68

Nlocal:           2048 ave        2048 max        2048 min
Histogram: 1 0 0 0 0 0 0 0 0 0
Nghost:           1198 ave        1198 max        1198 min
Histogram: 1 0 0 0 0 0 0 0 0 0
Neighs:           4046 ave        4046 max        4046 min
Histogram: 1 0 0 0 0 0 0 0 0 0

Total # of neighbors = 4046
Ave neighs/atom = 1.9755859
Neighbor list builds = 20525
Dangerous builds = 0

unfix 1
dump           1 all atom ${run_steps} 3dWCA_T${final_temperature}_d${density}_N${run_steps}.lammpstrj
dump           1 all atom 100000 3dWCA_T${final_temperature}_d${density}_N${run_steps}.lammpstrj
dump           1 all atom 100000 3dWCA_T0.1_d${density}_N${run_steps}.lammpstrj
dump           1 all atom 100000 3dWCA_T0.1_d1.5_N${run_steps}.lammpstrj
dump           1 all atom 100000 3dWCA_T0.1_d1.5_N100000.lammpstrj
dump           2 all dcd ${thermo_time} 3dWCA_T${final_temperature}_d${density}_N${run_steps}.dcd
dump           2 all dcd 500 3dWCA_T${final_temperature}_d${density}_N${run_steps}.dcd
dump           2 all dcd 500 3dWCA_T0.1_d${density}_N${run_steps}.dcd
dump           2 all dcd 500 3dWCA_T0.1_d1.5_N${run_steps}.dcd
dump           2 all dcd 500 3dWCA_T0.1_d1.5_N100000.dcd
fix 1 all nvt temp ${initial_temperature} ${final_temperature} ${tau}
fix 1 all nvt temp 3 ${final_temperature} ${tau}
fix 1 all nvt temp 3 0.1 ${tau}
fix 1 all nvt temp 3 0.1 1

run ${run_steps}
run 100000
Generated 0 of 0 mixed pair_coeff terms from geometric mixing rule
Per MPI rank memory allocation (min/avg/max) = 3.353 | 3.353 | 3.353 Mbytes
   Step          Temp          E_pair         E_mol          TotEng         Press     
     50000   3.0912713      0.36940397     0              5.0040467      3.9377815    
     50500   2.9822288      0.38413243     0              4.8552914      3.9541646    
     51000   2.9748485      0.3572762      0              4.8173701      3.8387239    
     51500   2.9460908      0.35127342     0              4.7682518      3.7945396    
     52000   2.9358103      0.34750993     0              4.7490751      3.7568426    
     52500   2.8468744      0.31348176     0              4.5817082      3.5942549    
     53000   2.8772999      0.33084515     0              4.6446876      3.6445833    
     53500   2.8852043      0.34227795     0              4.6679712      3.769412     
     54000   2.9009263      0.37418581     0              4.7234506      3.8656835    
     54500   2.8979942      0.33873504     0              4.6836037      3.7664261    
     55000   2.9262293      0.39067476     0              4.7778755      3.9087814    
     55500   2.9759087      0.37250999     0              4.8341935      3.8931548    
     56000   2.8398835      0.38787405     0              4.6456192      3.9816556    
     56500   2.8102084      0.35364761     0              4.5669019      3.7452307    
     57000   2.850758       0.33260195     0              4.606651       3.5766695    
     57500   2.8265815      0.30947263     0              4.5472747      3.5260093    
     58000   2.7737332      0.36938414     0              4.5279524      3.7568965    
     58500   2.6666851      0.34572708     0              4.3438016      3.6599955    
     59000   2.7297659      0.33130083     0              4.4239503      3.5999258    
     59500   2.670604       0.32521723     0              4.3291672      3.5512825    
     60000   2.702472       0.32039334     0              4.3721219      3.5214107    
     60500   2.7365992      0.3104472      0              4.4133417      3.4640025    
     61000   2.7839173      0.33137775     0              4.5052146      3.5655583    
     61500   2.6986629      0.32618405     0              4.3722019      3.5782521    
     62000   2.6605537      0.31342368     0              4.3023056      3.481359     
     62500   2.5935618      0.34173899     0              4.230182       3.5729755    
     63000   2.560986       0.30661419     0              4.1462174      3.4211613    
     63500   2.5815865      0.32808755     0              4.1985765      3.5311671    
     64000   2.5588223      0.31159169     0              4.147951       3.3776374    
     64500   2.5804729      0.31622308     0              4.1850425      3.4571581    
     65000   2.5972284      0.32126958     0              4.2152099      3.5209943    
     65500   2.6128599      0.35068912     0              4.2680652      3.6468278    
     66000   2.5508062      0.34778615     0              4.1721272      3.5317346    
     66500   2.4710052      0.25453264     0              3.9592306      3.0579229    
     67000   2.4428256      0.28784358     0              3.9502927      3.2255855    
     67500   2.4402282      0.32363986     0              3.9821949      3.3794817    
     68000   2.4786269      0.28621888     0              4.0023438      3.2178511    
     68500   2.5009407      0.25156238     0              4.0011417      3.0804573    
     69000   2.5108708      0.28346995     0              4.0479372      3.3043149    
     69500   2.5389695      0.29889594     0              4.1054907      3.3940807    
     70000   2.4235224      0.26389411     0              3.8974027      3.0457968    
     70500   2.4005896      0.27787765     0              3.8770038      3.1375158    
     71000   2.3579326      0.28325155     0              3.8184235      3.2117227    
     71500   2.3604126      0.30029293     0              3.8391831      3.2670824    
     72000   2.3323625      0.26686889     0              3.7637043      3.0758913    
     72500   2.2817476      0.27721293     0              3.6981632      3.0927615    
     73000   2.2224202      0.27180473     0              3.6038073      3.0790941    
     73500   2.2693874      0.28816735     0              3.6905862      3.1789212    
     74000   2.2846763      0.28619504     0              3.7115361      3.151787     
     74500   2.2846983      0.24127225     0              3.6666463      2.887388     
     75000   2.264002       0.29282578     0              3.6871705      3.164805     
     75500   2.3201915      0.27113849     0              3.7497264      3.0169559    
     76000   2.2628719      0.27868795     0              3.6713385      3.0697568    
     76500   2.2356497      0.27496474     0              3.6268019      3.0916732    
     77000   2.2440592      0.24771607     0              3.6121613      2.9541367    
     77500   2.2157125      0.24032832     0              3.5622743      2.8985006    
     78000   2.1478401      0.27230539     0              3.4924924      3.027803     
     78500   2.1454782      0.24703706     0              3.463683       2.8651907    
     79000   2.1206943      0.23650028     0              3.4159885      2.8155795    
     79500   2.1466119      0.24531809     0              3.4636637      2.917644     
     80000   2.141296       0.2733151      0              3.4836908      3.0478039    
     80500   2.1471982      0.23392318     0              3.4531479      2.7917051    
     81000   2.0919107      0.25234251     0              3.3886764      2.8835934    
     81500   2.0863226      0.23526553     0              3.3632213      2.7614521    
     82000   1.9943388      0.27114054     0              3.261188       2.9551006    
     82500   2.0500388      0.22694142     0              3.3004981      2.6924584    
     83000   2.0413574      0.22458828     0              3.2851293      2.7018097    
     83500   1.9834361      0.22636593     0              3.2000674      2.6841839    
     84000   1.9923462      0.2393725      0              3.2264325      2.7630657    
     84500   1.9561164      0.24852373     0              3.1812657      2.7692522    
     85000   1.9548369      0.23479807     0              3.1656217      2.7189156    
     85500   2.0291549      0.21567896     0              3.2579251      2.6201086    
     86000   1.9754347      0.24188972     0              3.2035949      2.8107819    
     86500   1.9626898      0.24212284     0              3.1847201      2.7939562    
     87000   1.9048981      0.23911487     0              3.0950668      2.7441703    
     87500   1.9075007      0.19913713     0              3.058991       2.5140232    
     88000   1.8917703      0.22967454     0              3.0659445      2.6755305    
     88500   1.9143744      0.21552492     0              3.0856844      2.5905038    
     89000   1.8772659      0.19310406     0              3.007628       2.4681106    
     89500   1.8408718      0.19942979     0              2.9593893      2.4638572    
     90000   1.8218773      0.2329706      0              2.9644522      2.5916966    
     90500   1.795954       0.19832888     0              2.8909446      2.4282433    
     91000   1.7931723      0.20626476     0              2.8947099      2.4937063    
     91500   1.8071777      0.19251832     0              2.9019612      2.4176688    
     92000   1.7654273      0.22569826     0              2.8725462      2.5362602    
     92500   1.7771433      0.20709734     0              2.8715107      2.4987064    
     93000   1.8089166      0.16849089     0              2.8805409      2.2655122    
     93500   1.7908017      0.18659424     0              2.8714852      2.3233773    
     94000   1.7559188      0.19305084     0              2.825643       2.376413     
     94500   1.7075411      0.16514273     0              2.7252037      2.2047442    
     95000   1.6882962      0.17716007     0              2.7083679      2.2559194    
     95500   1.6311019      0.17978866     0              2.6252469      2.2732071    
     96000   1.6465205      0.19347805     0              2.6620529      2.3197163    
     96500   1.6475287      0.17721229     0              2.6472986      2.2311601    
     97000   1.6595919      0.17463797     0              2.6628104      2.2133088    
     97500   1.6424785      0.17252208     0              2.6350368      2.2108133    
     98000   1.6387166      0.19428474     0              2.6511593      2.3412868    
     98500   1.6542471      0.18256195     0              2.6627211      2.2984588    
     99000   1.5751198      0.17331625     0              2.5348422      2.1755925    
     99500   1.5623528      0.17289163     0              2.5152765      2.173535     
    100000   1.5291758      0.17127415     0              2.4639179      2.1422278    
    100500   1.4934163      0.15839328     0              2.397424       2.0840939    
    101000   1.5185528      0.15218539     0              2.4289024      2.0300633    
    101500   1.5097914      0.16113235     0              2.4247137      2.0318445    
    102000   1.5024828      0.16505367     0              2.4176775      2.109954     
    102500   1.5040586      0.16251027     0              2.4174966      2.081134     
    103000   1.5168474      0.17298817     0              2.4471483      2.1729873    
    103500   1.4772509      0.14392275     0              2.3587171      1.9276113    
    104000   1.4113531      0.13228671     0              2.2482826      1.8411808    
    104500   1.4139038      0.1366182      0              2.2564384      1.874666     
    105000   1.3913187      0.14782106     0              2.23378        1.9623894    
    105500   1.3606962      0.15278887     0              2.1928366      1.9592995    
    106000   1.3639443      0.13873746     0              2.1836549      1.8602263    
    106500   1.3522433      0.15720438     0              2.1845788      1.9728289    
    107000   1.3316366      0.12425452     0              2.1207342      1.7935382    
    107500   1.3328296      0.14380632     0              2.1420745      1.891646     
    108000   1.3016881      0.12863903     0              2.0802178      1.7891292    
    108500   1.2811531      0.12792897     0              2.0487202      1.7560201    
    109000   1.2780043      0.13047334     0              2.0465437      1.7818444    
    109500   1.2514087      0.12743435     0              2.0036309      1.7561319    
    110000   1.2564622      0.12635117     0              2.0101242      1.7398751    
    110500   1.241326       0.14516217     0              2.006242       1.8016854    
    111000   1.1982912      0.10559516     0              1.9021544      1.611766     
    111500   1.1914123      0.12783836     0              1.9140842      1.7160725    
    112000   1.1958962      0.12703465     0              1.9200031      1.68968      
    112500   1.2022778      0.12577603     0              1.9283122      1.6908746    
    113000   1.175743       0.11765474     0              1.8804081      1.6464794    
    113500   1.201374       0.10951981     0              1.910701       1.6048365    
    114000   1.1455557      0.10943155     0              1.826926       1.5650395    
    114500   1.1249255      0.10919019     0              1.7957545      1.6005135    
    115000   1.127746       0.10539891     0              1.7961919      1.5467705    
    115500   1.0965583      0.1166732      0              1.7607075      1.5992974    
    116000   1.0987879      0.094791016    0              1.7421681      1.4348279    
    116500   1.0789713      0.10342394     0              1.7210906      1.5040136    
    117000   1.0721723      0.11874199     0              1.7262151      1.6010499    
    117500   1.0506088      0.10452355     0              1.6796673      1.5184131    
    118000   1.0442483      0.10139626     0              1.6670039      1.4875051    
    118500   1.0522369      0.10249297     0              1.6800776      1.4876076    
    119000   1.0007356      0.093106768    0              1.5934772      1.3945844    
    119500   0.98780735     0.087135485    0              1.568123       1.3556738    
    120000   0.94980531     0.090002226    0              1.5140145      1.3549927    
    120500   0.94509851     0.084200913    0              1.5011565      1.3009541    
    121000   0.94044112     0.08335734     0              1.4933302      1.2925442    
    121500   0.91889668     0.090473505    0              1.4681455      1.3478206    
    122000   0.91827497     0.088636342    0              1.4653762      1.3052728    
    122500   0.91338815     0.078193315    0              1.4476066      1.2313606    
    123000   0.90287185     0.086163009    0              1.4398095      1.294505     
    123500   0.89084676     0.077107184    0              1.4127249      1.2430397    
    124000   0.83718892     0.069986363    0              1.3251566      1.1460795    
    124500   0.84020121     0.070989851    0              1.3306763      1.1421159    
    125000   0.81604877     0.062612706    0              1.2860882      1.0998844    
    125500   0.81599409     0.070287747    0              1.2936812      1.1369704    
    126000   0.79163517     0.083464968    0              1.2703379      1.2341102    
    126500   0.80053878     0.068021987    0              1.2682438      1.0959307    
    127000   0.77142684     0.074145114    0              1.2307204      1.1370806    
    127500   0.7409671      0.073670255    0              1.1845782      1.1360778    
    128000   0.72185258     0.063386257    0              1.1456364      1.0544958    
    128500   0.72210683     0.061414289    0              1.1440456      1.0145894    
    129000   0.70725835     0.061274575    0              1.1216441      1.027561     
    129500   0.71605857     0.064349957    0              1.1379134      1.0491386    
    130000   0.68668239     0.05786919     0              1.0873898      0.97174753   
    130500   0.6800667      0.058224642    0              1.0778266      0.9600272    
    131000   0.65655317     0.052979145    0              1.037328       0.94679172   
    131500   0.62856515     0.052933214    0              0.99532057     0.91757723   
    132000   0.61877013     0.048954721    0              0.97665671     0.86382989   
    132500   0.60013048     0.051639013    0              0.95139518     0.88070062   
    133000   0.58753557     0.044552586    0              0.92542562     0.81511689   
    133500   0.57301697     0.047236477    0              0.90634224     0.84143986   
    134000   0.56704981     0.036068917    0              0.88622832     0.75251071   
    134500   0.55359634     0.050167063    0              0.8801561      0.85729918   
    135000   0.54341378     0.044697964    0              0.85942063     0.78496461   
    135500   0.5162351      0.044311809    0              0.81828636     0.79318946   
    136000   0.50245405     0.039817884    0              0.79313095     0.73409038   
    136500   0.48758509     0.035859883    0              0.76688039     0.70666786   
    137000   0.46799337     0.037411188    0              0.73905847     0.70616994   
    137500   0.45689432     0.038200028    0              0.72320687     0.70002274   
    138000   0.44459144     0.029987307    0              0.69654884     0.62653972   
    138500   0.43093261     0.028548674    0              0.67463196     0.60665846   
    139000   0.42276344     0.032524773    0              0.66636029     0.63990264   
    139500   0.41093396     0.026736438    0              0.6428364      0.57881664   
    140000   0.37630868     0.027122719    0              0.59131012     0.55783657   
    140500   0.37211579     0.027201304    0              0.58510245     0.56383026   
    141000   0.36424253     0.027826453    0              0.57392347     0.56922      
    141500   0.35071002     0.020133391    0              0.54594155     0.47918035   
    142000   0.34045285     0.019863657    0              0.53029357     0.46129725   
    142500   0.32139088     0.021210864    0              0.5030618      0.47489153   
    143000   0.29733597     0.01773165     0              0.46351783     0.43829344   
    143500   0.28712486     0.019651276    0              0.45012827     0.45534795   
    144000   0.27877038     0.018198388    0              0.43614978     0.41267084   
    144500   0.25805368     0.019920281    0              0.4068118      0.42240615   
    145000   0.23779647     0.015929236    0              0.37244977     0.37302372   
    145500   0.23263289     0.013896162    0              0.36267511     0.35826302   
    146000   0.22720112     0.014644434    0              0.35527971     0.37642829   
    146500   0.20214038     0.010539529    0              0.31360205     0.2977586    
    147000   0.1910188      0.010021248    0              0.29640954     0.28794617   
    147500   0.16893364     0.0095908845   0              0.26286761     0.27045838   
    148000   0.1591191      0.0088400208   0              0.24740213     0.24861018   
    148500   0.13994253     0.0064832306   0              0.21629452     0.20410127   
    149000   0.1310747      0.0056350911   0              0.20215114     0.18748399   
    149500   0.1143308      0.0052058101   0              0.17661827     0.18338464   
    150000   0.10061145     0.0049555194   0              0.155799       0.16820606   
Loop time of 28.3795 on 1 procs for 100000 steps with 2048 atoms

Performance: 3044455.445 tau/day, 3523.675 timesteps/s, 7.216 Matom-step/s
99.3% CPU use with 1 MPI tasks x 1 OpenMP threads

MPI task timing breakdown:
Section |  min time  |  avg time  |  max time  |%varavg| %total
---------------------------------------------------------------
Pair    | 4.271      | 4.271      | 4.271      |   0.0 | 15.05
Neigh   | 19.025     | 19.025     | 19.025     |   0.0 | 67.04
Comm    | 1.5969     | 1.5969     | 1.5969     |   0.0 |  5.63
Output  | 0.082402   | 0.082402   | 0.082402   |   0.0 |  0.29
Modify  | 2.5425     | 2.5425     | 2.5425     |   0.0 |  8.96
Other   |            | 0.8615     |            |       |  3.04

Nlocal:           2048 ave        2048 max        2048 min
Histogram: 1 0 0 0 0 0 0 0 0 0
Nghost:           1146 ave        1146 max        1146 min
Histogram: 1 0 0 0 0 0 0 0 0 0
Neighs:           4077 ave        4077 max        4077 min
Histogram: 1 0 0 0 0 0 0 0 0 0

Total # of neighbors = 4077
Ave neighs/atom = 1.9907227
Neighbor list builds = 28590
Dangerous builds = 0

Total wall time: 0:00:47
