
Host: cm024.hpc.nyu.edu

Timers On : Thu Nov  7 14:39:52 2024
Timers Off: Thu Nov  7 14:39:52 2024

Wall Time:        0.35 seconds

                                                       Time (seconds)
Module                                       User      System        Wall        Calls

--------------------------------------------------------------------------------------

**************************************************************************************
